40
Lattice="5.690129 0.0 0.0 0.0 5.60012 0.0 0.0 0.0 15.689418" Properties=species:S:1:pos:R:3:REF_forces:R:3 REF_energy=-306.92049272 REF_stress="-3.59178534 0.0 0.0 0.0 -3.6369512 0.0 0.0 0.0 -3.71595986" REF_electric_field="0.01 0.01 0.01" REF_polarisation="-3.1706854701114616e-05 0.00011818254227454755 -2.537512996591706e-05" pbc="T T T"
Na       1.42253225       4.15209697       5.84524957      -0.00000000      -0.00308770       0.00000000
Na       4.26759675       1.44802303      13.68995857       0.00000000       0.00308770      -0.00000000
Na       4.26759675       1.44802303       5.84524957       0.00000000       0.00308770      -0.00000000
Na       1.42253225       4.15209697      13.68995857       0.00000000      -0.00308770      -0.00000000
Na       1.15432802       4.14829449       9.76760407      -0.00555501       0.00211385       0.00000000
Na       4.53580098       1.45182551       1.92289507       0.00555501      -0.00211385      -0.00000000
Na       3.99939252       1.45182551       9.76760407      -0.00555501      -0.00211385      -0.00000000
Na       1.69073648       4.14829449       1.92289507       0.00555501       0.00211385       0.00000000
Nb       1.26283309       1.36373562       7.80962746      -0.03078275      -0.00160674       0.00599034
Nb       4.42729591       4.23638438      15.65433646       0.03078275       0.00160674       0.00599034
Nb       4.10789759       4.23638438       7.80962746      -0.03078275       0.00160674       0.00599034
Nb       1.58223141       1.36373562      15.65433646       0.03078275      -0.00160674       0.00599034
Nb       1.58223141       1.36373562       3.88087168       0.03078275      -0.00160674      -0.00599034
Nb       4.10789759       4.23638438      11.72558068      -0.03078275       0.00160674      -0.00599034
Nb       4.42729591       4.23638438       3.88087168       0.03078275       0.00160674      -0.00599034
Nb       1.26283309       1.36373562      11.72558068      -0.03078275      -0.00160674      -0.00599034
O        0.25503727       5.37413836      11.99225372      -0.00160402       0.00410103      -0.00188893
O        5.43509173       0.22598164       4.14754472       0.00160402      -0.00410103      -0.00188893
O        3.10010177       0.22598164      11.99225372      -0.00160402      -0.00410103      -0.00188893
O        2.59002723       5.37413836       4.14754472       0.00160402       0.00410103      -0.00188893
O        5.43509173       0.22598164      15.38766342       0.00160402      -0.00410103       0.00188893
O        0.25503727       5.37413836       7.54295442      -0.00160402       0.00410103       0.00188893
O        2.59002723       5.37413836      15.38766342       0.00160402       0.00410103       0.00188893
O        3.10010177       0.22598164       7.54295442      -0.00160402      -0.00410103       0.00188893
O        0.18460486       3.03553945       3.61101369      -0.01897239       0.01247620       0.00992157
O        5.50552414       2.56458055      11.45572269       0.01897239      -0.01247620       0.00992157
O        3.02966936       2.56458055       3.61101369      -0.01897239      -0.01247620       0.00992157
O        2.66045964       3.03553945      11.45572269       0.01897239       0.01247620       0.00992157
O        5.50552414       2.56458055       8.07948545       0.01897239      -0.01247620      -0.00992157
O        0.18460486       3.03553945       0.23477645      -0.01897239       0.01247620      -0.00992157
O        2.66045964       3.03553945       8.07948545       0.01897239       0.01247620      -0.00992157
O        3.02966936       2.56458055       0.23477645      -0.01897239      -0.01247620      -0.00992157
O        1.42253225       1.77162036      13.68995857      -0.00000000       0.00115525       0.00000000
O        4.26759675       3.82850524       5.84524957       0.00000000      -0.00115525      -0.00000000
O        4.26759675       3.82850524      13.68995857       0.00000000      -0.00115525      -0.00000000
O        1.42253225       1.77162036       5.84524957      -0.00000000       0.00115525       0.00000000
O        1.56834181       1.02817083       9.76760407       0.02026402       0.00835607       0.00000000
O        4.12178719       4.57194917       1.92289507      -0.02026402      -0.00835607       0.00000000
O        4.41340631       4.57194917       9.76760407       0.02026402      -0.00835607      -0.00000000
O        1.27672269       1.02817083       1.92289507      -0.02026402       0.00835607      -0.00000000
28
Lattice="9.217975 0.0 0.0 0.0 9.740299 0.0 0.0 0.0 5.576626" Properties=species:S:1:pos:R:3:REF_forces:R:3 REF_energy=-168.26611694 REF_stress="6.47378887 0.0 0.0 0.0 13.80731674 0.0 0.0 0.0 12.10384935" REF_electric_field="0.01 0.01 0.01" REF_polarisation="4.35903800926551e-13 4.4061882107913837e-13 0.16694324165811547" pbc="T T T"
Cs       9.12135219       7.86981094       4.20539501      -0.00482435       0.00573061      -0.00536678
Cs       0.09662281       1.87048806       1.41708201       0.00482435      -0.00573061      -0.00536678
Cs       4.51236469       6.74063756       4.20539501      -0.00482435      -0.00573061      -0.00536678
Cs       4.70561031       2.99966144       1.41708201       0.00482435       0.00573061      -0.00536678
Zn       1.50919452       3.95222372       4.19896516      -0.05482540       0.01092902       0.00384558
Zn       7.70878048       5.78807528       1.41065216       0.05482540      -0.01092902       0.00384558
Zn       6.11818202       0.91792578       4.19896516      -0.05482540      -0.01092902       0.00384558
Zn       3.09979298       8.82237322       1.41065216       0.05482540       0.01092902       0.00384558
P        1.94195079       5.59377579       1.41089195      -0.18323027       0.00381200      -0.06896720
P        7.27602421       4.14652321       4.19920495       0.18323027      -0.00381200      -0.06896720
P        6.55093829       9.01667271       1.41089195      -0.18323027      -0.00381200      -0.06896720
P        2.66703671       0.72362629       4.19920495       0.18323027       0.00381200      -0.06896720
O        0.43480266       5.89558870       1.41311145      -0.04590423       0.01400277      -0.02371928
O        8.78317234       3.84471030       4.20142445       0.04590423      -0.01400277      -0.02371928
O        5.04379016       8.71485980       1.41311145      -0.04590423      -0.01400277      -0.02371928
O        4.17418484       1.02543920       4.20142445       0.04590423       0.01400277      -0.02371928
O        1.84497770       2.02077113       4.14357811      -0.15580998       0.24437477      -0.02758160
O        7.37299730       7.71952787       1.35526511       0.15580998      -0.24437477      -0.02758160
O        6.45396520       2.84937837       4.14357811      -0.15580998      -0.24437477      -0.02758160
O        2.76400980       6.89092063       1.35526511       0.15580998       0.24437477      -0.02758160
O        2.35914712       4.72617814       0.18941010       0.03804312      -0.14034450      -0.15426715
O        6.85882788       5.01412086       2.97772310      -0.03804312       0.14034450      -0.15426715
O        6.96813462       0.14397136       0.18941010       0.03804312       0.14034450      -0.15426715
O        2.24984038       9.59632764       2.97772310      -0.03804312      -0.14034450      -0.15426715
O        2.23955312       9.68743840       5.47310709      -0.11430509      -0.14169868       0.27605644
O        6.97842188       0.05286060       2.68479409       0.11430509       0.14169868       0.27605644
O        6.84854062       4.92301010       5.47310709      -0.11430509       0.14169868       0.27605644
O        2.36943438       4.81728890       2.68479409       0.11430509      -0.14169868       0.27605644
20
Lattice="7.97402 0.0 0.0 0.0 5.591004 0.0 0.0 0.0 5.616638" Properties=species:S:1:pos:R:3:REF_forces:R:3 REF_energy=-153.24855732 REF_stress="16.55584511 0.0 0.0 0.0 -1.76161541 0.0 0.0 0.0 -5.0662919" REF_electric_field="0.01 0.01 0.01" REF_polarisation="-1.0654083672774605e-12 0.009546333725720208 -19.930867176116795" pbc="T T T"
Na       0.00000000       1.38043566       4.36571723      -0.00000000       0.02135473      -0.03475849
Na       0.00000000       4.21056834       1.55739823      -0.00000000      -0.02135473      -0.03475849
Na       3.98701000       1.36890701       4.40451135       0.00000000      -0.03990326       0.00846091
Na       3.98701000       4.22209699       1.59619235      -0.00000000       0.03990326       0.00846091
Nb       1.99210955       1.41067181       1.59132273      -0.00655853       0.12580917      -0.30711342
Nb       5.98191045       4.18033219       4.39964173       0.00655853      -0.12580917      -0.30711342
Nb       1.99210955       4.18033219       4.39964173      -0.00655853      -0.12580917      -0.30711342
Nb       5.98191045       1.41067181       1.59132273       0.00655853       0.12580917      -0.30711342
O        1.90651642       0.26652875       5.60947679      -0.00095676       0.04259768       0.08691253
O        6.06750358       5.32447525       2.80115779       0.00095676      -0.04259768       0.08691253
O        1.90651642       5.32447525       2.80115779      -0.00095676      -0.04259768       0.08691253
O        6.06750358       0.26652875       5.60947679       0.00095676       0.04259768       0.08691253
O        2.07442535       2.53215453       3.32394883       0.01940417       0.06398302       0.14739303
O        5.89959465       3.05884947       0.51562983      -0.01940417      -0.06398302       0.14739303
O        2.07442535       3.05884947       0.51562983       0.01940417      -0.06398302       0.14739303
O        5.89959465       2.53215453       3.32394883      -0.01940417       0.06398302       0.14739303
O        0.00000000       1.51442966       1.69469133      -0.00000000       0.03759796       0.12309085
O        0.00000000       4.07657434       4.50301033      -0.00000000      -0.03759796       0.12309085
O        3.98701000       1.28244772       1.65744741       0.00000000      -0.13027154       0.04882245
O        3.98701000       4.30855628       4.46576641       0.00000000       0.13027154       0.04882245
27
Lattice="6.73868 1e-06 0.0 -3.369341 5.835868 0.0 0.0 0.0 8.214917" Properties=species:S:1:pos:R:3:REF_forces:R:3 REF_energy=-136.2603363 REF_stress="-8.49194491 4.9e-07 0.0 -1e-07 -8.49194617 0.0 0.0 0.0 -27.54855207" REF_electric_field="0.01 0.01 0.01" REF_polarisation="0.04295363994628602 -0.04245126100201037 7.103230751404158" pbc="T T T"
Na      -0.00631107       1.75389441       3.19560271       0.00491952      -0.03432065       0.04460498
Na       3.36303196       3.69918247       5.93390564       0.00491952      -0.03432065       0.04460498
Na       1.85357417       4.95346211       3.19560271       0.02726279       0.02142075       0.04460498
Na      -0.00631511       5.64447536       0.45729978       0.00491952      -0.03432065       0.04460498
Na       1.85357820       1.06288117       5.93390564       0.02726279       0.02142075       0.04460498
Na      -1.84727520       4.96438631       3.19560271      -0.03218231       0.01289990       0.04460498
Na      -1.51576887       3.00817406       0.45729978       0.02726279       0.02142075       0.04460498
Na       4.89140884       1.07380637       5.93390564      -0.03218231       0.01289990       0.04460498
Na       1.52206176       3.01909926       0.45729978      -0.03218231       0.01289990       0.04460498
Na       0.00000000       0.00000000       0.91691618       0.00000000      -0.00000000      -0.25957287
Na       3.36934304       1.94528805       3.65521910       0.00000000      -0.00000000      -0.25957287
Na      -0.00000404       3.89058095       6.39353025       0.00000000      -0.00000000      -0.25957287
C        0.00000000       0.00000000       6.81953120       0.00000000      -0.00000000       0.12994216
C        3.36934304       1.94528805       1.34291713       0.00000000      -0.00000000       0.12994216
C       -0.00000404       3.89058095       4.08122827       0.00000000      -0.00000000       0.12994216
O       -2.18784812       5.15174098       7.25190692      -0.49455290       0.28577821      -0.31136685
O        4.55083592       1.26116104       1.77529285      -0.49455290       0.28577821      -0.31136685
O        0.00172487       1.36526642       7.25190692      -0.00021471      -0.57118451      -0.31136685
O        1.18148885       3.20645393       4.51360400      -0.49455290       0.28577821      -0.31136685
O        3.37106790       3.31055448       1.77529285      -0.00021471      -0.57118451      -0.31136685
O        2.18612125       5.15472960       7.25190692       0.49476761       0.28540630      -0.31136685
O        0.00172083       5.25584737       4.51360400      -0.00021471      -0.57118451      -0.31136685
O        2.18612529       1.26414865       1.77529285       0.49476761       0.28540630      -0.31136685
O       -1.18322179       3.20944154       4.51360400       0.49476761       0.28540630      -0.31136685
O        0.00000000       0.00000000       5.13333733       0.00000000      -0.00000000       0.92991633
O        3.36934304       1.94528805       7.87164026       0.00000000      -0.00000000       0.92991633
O       -0.00000404       3.89058095       2.39503441       0.00000000      -0.00000000       0.92991633
72
Lattice="7.544987 0.0 0.0 0.0 15.34206 0.0 0.0 0.0 7.471916" Properties=species:S:1:pos:R:3:REF_forces:R:3 REF_energy=-446.46036164 REF_stress="2.8132831 0.0 0.0 0.0 3.10140418 0.0 0.0 0.0 2.20642027" REF_electric_field="0.01 0.01 0.01" REF_polarisation="-7.944652714134784e-13 1.8524064964600215e-05 0.7349867387864888" pbc="T T T"
Mg       0.14612376       5.79598480       5.88668925      -0.03450626       0.01426676      -0.00427165
Mg       7.39886324       9.54607520       2.15073125       0.03450626      -0.01426676      -0.00427165
Mg       3.91861726       9.54607520       5.88668925      -0.03450626      -0.01426676      -0.00427165
Mg       3.62636974       5.79598480       2.15073125       0.03450626       0.01426676      -0.00427165
Mg       0.19357419      13.40291567       5.64632518      -0.05990897       0.00101279       0.00805583
Mg       7.35141281       1.93914433       1.91036718       0.05990897      -0.00101279       0.00805583
Mg       3.96606769       1.93914433       5.64632518      -0.05990897      -0.00101279       0.00805583
Mg       3.57891931      13.40291567       1.91036718       0.05990897       0.00101279       0.00805583
N        1.04862493      12.05546856       0.70323432       0.00806891       0.00417874      -0.03771836
N        6.49636207       3.28659144       4.43919232      -0.00806891      -0.00417874      -0.03771836
N        4.82111843       3.28659144       0.70323432       0.00806891      -0.00417874      -0.03771836
N        2.72386857      12.05546856       4.43919232      -0.00806891       0.00417874      -0.03771836
N        1.20370459       4.50530331       0.96520717       0.05359746       0.03408710       0.01587343
N        6.34128241      10.83675669       4.70116517      -0.05359746      -0.03408710       0.01587343
N        4.97619809      10.83675669       0.96520717       0.05359746      -0.03408710       0.01587343
N        2.56878891       4.50530331       4.70116517      -0.05359746       0.03408710       0.01587343
N        1.28212719       8.46488955       7.00495861      -0.05601739      -0.01863568       0.00228396
N        6.26285981       6.87717045       3.26900061       0.05601739       0.01863568       0.00228396
N        5.05462069       6.87717045       7.00495861      -0.05601739       0.01863568       0.00228396
N        2.49036631       8.46488955       3.26900061       0.05601739      -0.01863568       0.00228396
N        1.33184865       0.71734870       6.87598587       0.02795071       0.02919276       0.02375798
N        6.21313835      14.62471130       3.14002787      -0.02795071      -0.02919276       0.02375798
N        5.10434215      14.62471130       6.87598587       0.02795071      -0.02919276       0.02375798
N        2.44064485       0.71734870       3.14002787      -0.02795071       0.02919276       0.02375798
O        0.29538624       8.53710463       0.31860997       0.01185873      -0.00729349      -0.01746577
O        7.24960076       6.80495537       4.05456797      -0.01185873       0.00729349      -0.01746577
O        4.06787974       6.80495537       0.31860997       0.01185873       0.00729349      -0.01746577
O        3.47710726       8.53710463       4.05456797      -0.01185873      -0.00729349      -0.01746577
O        0.31704035       3.63514770       0.75440947       0.04061965      -0.01728929      -0.01070920
O        7.22794665      11.70691230       4.49036747      -0.04061965       0.01728929      -0.01070920
O        4.08953385      11.70691230       0.75440947       0.04061965       0.01728929      -0.01070920
O        3.45545315       3.63514770       4.49036747      -0.04061965      -0.01728929      -0.01070920
O        0.31826264      11.84715407       7.16204070       0.08808232       0.10214641       0.06256505
O        7.22672436       3.49490593       3.42608270      -0.08808232      -0.10214641       0.06256505
O        4.09075614       3.49490593       7.16204070       0.08808232      -0.10214641       0.06256505
O        3.45423086      11.84715407       3.42608270      -0.08808232       0.10214641       0.06256505
O        0.38743508       0.76777805       0.23639648       0.03164229      -0.03410222       0.00140455
O        7.15755192      14.57428195       3.97235448      -0.03164229       0.03410222       0.00140455
O        4.15992858      14.57428195       0.23639648       0.03164229       0.03410222       0.00140455
O        3.38505842       0.76777805       3.97235448      -0.03164229      -0.03410222       0.00140455
O        1.05884084      11.25748200       1.67619733       0.04195164      -0.03062461      -0.03300116
O        6.48614616       4.08457800       5.41215533      -0.04195164       0.03062461      -0.03300116
O        4.83133434       4.08457800       1.67619733       0.04195164       0.03062461      -0.03300116
O        2.71365266      11.25748200       5.41215533      -0.04195164      -0.03062461      -0.03300116
O        1.18406499       5.59311674       0.32363857      -0.07295889       0.00877391      -0.02378245
O        6.36092201       9.74894326       4.05959657       0.07295889      -0.00877391      -0.02378245
O        4.95655849       9.74894326       0.32363857      -0.07295889      -0.00877391      -0.02378245
O        2.58842851       5.59311674       4.05959657       0.07295889       0.00877391      -0.02378245
O        1.29624386       7.60007297       6.08227412      -0.04199837       0.03593922       0.00685772
O        6.24874314       7.74198703       2.34631612       0.04199837      -0.03593922       0.00685772
O        5.06873736       7.74198703       6.08227412      -0.04199837      -0.03593922       0.00685772
O        2.47624964       7.60007297       2.34631612       0.04199837       0.03593922       0.00685772
O        1.35774305      15.13902318       6.01277783      -0.00919154      -0.02823747       0.01011981
O        6.18724395       0.20303682       2.27681983       0.00919154       0.02823747       0.01011981
O        5.13023655       0.20303682       6.01277783      -0.00919154       0.02823747       0.01011981
O        2.41475045      15.13902318       2.27681983       0.00919154      -0.02823747       0.01011981
O        1.51561435       1.58241075       3.16304884       0.06473813      -0.05192646      -0.01601417
O        6.02937265      13.75964925       6.89900684      -0.06473813       0.05192646      -0.01601417
O        5.28810785      13.75964925       3.16304884       0.06473813       0.05192646      -0.01601417
O        2.25687915       1.58241075       6.89900684      -0.06473813      -0.05192646      -0.01601417
O        1.51849654       9.25962360       3.39531335       0.02717446      -0.02000926       0.00574061
O        6.02649046       6.08243640       7.13127135      -0.02717446       0.02000926       0.00574061
O        5.29099004       6.08243640       3.39531335       0.02717446       0.02000926       0.00574061
O        2.25399696       9.25962360       7.13127135      -0.02717446      -0.02000926       0.00574061
O        1.65071489       4.30252731       5.54464735       0.03291959       0.08304066      -0.07789188
O        5.89427211      11.03953269       1.80868935      -0.03291959      -0.08304066      -0.07789188
O        5.42320839      11.03953269       5.54464735       0.03291959      -0.08304066      -0.07789188
O        2.12177861       4.30252731       1.80868935      -0.03291959       0.08304066      -0.07789188
O        1.77691234      13.09187074       0.72742838       0.07190008      -0.00277290       0.08419571
O        5.76807466       2.25018926       4.46338638      -0.07190008       0.00277290       0.08419571
O        5.54940584       2.25018926       0.72742838       0.07190008       0.00277290       0.08419571
O        1.99558116      13.09187074       4.46338638      -0.07190008      -0.00277290       0.08419571
10
Lattice="5.714574 0.0 0.0 -2.857287 4.948966 0.0 0.0 0.0 4.82142" Properties=species:S:1:pos:R:3:REF_forces:R:3 REF_energy=-53.88484752 REF_stress="-16.10386317 0.0 0.0 0.0 -16.1038615 0.0 0.0 -0.0 -16.11400543" REF_electric_field="0.01 0.01 0.01" REF_polarisation="-0.0004689944121696168 2.380409694109819e-13 -0.829066932885863" pbc="T T T"
Ba      -0.00000286       3.29931232       3.65191708      -0.00000000       0.00000000       0.00287286
Ba       2.85728986       1.64965368       1.24120708      -0.00000000       0.00000000       0.00287286
Ni       0.00000000       0.00000000       0.04805509      -0.00000000       0.00000000      -0.00384822
Ni       0.00000000       0.00000000       2.45876509      -0.00000000       0.00000000      -0.00384822
O        0.00000000       1.44950265       1.25372349      -0.00000000       0.03612938       0.00032512
O        1.60198082       4.22421467       1.25372349      -0.03128896      -0.01806469       0.00032512
O        2.85728700       3.49946335       3.66443349      -0.00000000      -0.03612938       0.00032512
O       -1.60198082       4.22421467       1.25372349       0.03128896      -0.01806469       0.00032512
O        1.25530618       0.72475133       3.66443349       0.03128896       0.01806469       0.00032512
O        4.45926782       0.72475133       3.66443349      -0.03128896       0.01806469       0.00032512
14
Lattice="3.676234 -0.005157 0.711258 1.028858 5.872027 2.795895 -0.167293 -0.126123 7.661382" Properties=species:S:1:pos:R:3:REF_forces:R:3 REF_energy=-85.57831158 REF_stress="6.56482874 -0.59195611 -2.27749439 -0.59195566 1.31565058 0.10759061 -2.27749336 0.10759143 3.29845582" REF_electric_field="0.01 0.01 0.01" REF_polarisation="0.038392908497392755 -0.0920868828804762 -0.00566440444366924" pbc="T T T"
Mo       0.98391518       0.78554849       6.70165730      -0.00881515      -0.11201886       0.05323474
Mo       3.59304122       4.88454971       4.42238779       0.00707366       0.10323878      -0.04526375
H        1.52346567       3.80958703       8.54761145      -0.11506843      -0.04167462       0.01942301
H        1.93750928       1.20539975       3.43936183      -0.09421623       0.01845611       0.21504360
H        2.64184172       4.46651985       7.68390743       0.11379388      -0.01318298      -0.23989852
H        3.07327143       1.85088724       2.58603820       0.06471330       0.01396228      -0.01413304
O        0.79621753       2.26088136       7.58153664       0.00560292       0.00958876       0.07586445
O        1.82185973       5.42801167       3.72119456       0.00135469      -0.01724560      -0.02016065
O        1.33912780       1.33892217       5.10044382       0.00591993      -0.03985853      -0.05022014
O        2.20073445       4.51833191       8.56173828      -0.06714502       0.07320856       0.23308383
O        2.38274649       1.15354369       2.56285560       0.08372349      -0.04771276      -0.21123941
O        3.23618710       4.33310951       6.02385077      -0.00117059       0.03938672       0.04405943
O        2.75531586       0.24191703       7.40346910       0.00499261       0.02115078       0.01954980
O        3.78222816       3.40739414       3.54594394      -0.00075906      -0.00729863      -0.07934334
12
Lattice="5.283543 0.0 0.0 0.0 5.137292 0.0 0.0 0.0 5.156033" Properties=species:S:1:pos:R:3:REF_forces:R:3 REF_energy=-113.45433404 REF_stress="12.72748164 0.0 0.0 0.0 30.29033438 0.0 0.0 0.0 24.81256148" REF_electric_field="0.01 0.01 0.01" REF_polarisation="0.0017183317847827564 0.0006779153742472475 -37.36781780845747" pbc="T T T"
Zr       0.10768389       3.79742974       3.92325645       0.16748502      -0.19236604      -0.13480966
Zr       5.17585911       1.33986226       1.34523995      -0.16748502       0.19236604      -0.13480966
Zr       2.74945539       1.33986226       3.92325645       0.16748502       0.19236604      -0.13480966
Zr       2.53408761       3.79742974       1.34523995      -0.16748502      -0.19236604      -0.13480966
O        0.91711211       4.90799411       0.42411981      -0.46998803       0.12554157      -0.01441983
O        4.36643089       0.22929789       3.00213631       0.46998803      -0.12554157      -0.01441983
O        3.55888361       0.22929789       0.42411981      -0.46998803      -0.12554157      -0.01441983
O        1.72465939       4.90799411       3.00213631       0.46998803       0.12554157      -0.01441983
O        1.24578019       2.44458554       2.64419934      -0.43789765      -0.10918469       0.14922949
O        4.03776281       2.69270646       0.06618284       0.43789765       0.10918469       0.14922949
O        3.88755169       2.69270646       2.64419934      -0.43789765       0.10918469       0.14922949
O        1.39599131       2.44458554       0.06618284       0.43789765      -0.10918469       0.14922949
14
Lattice="5.758673 0.0 -3.268188 0.0 3.751032 0.0 -0.088712 0.0 6.575582" Properties=species:S:1:pos:R:3:REF_forces:R:3 REF_energy=-86.27452086 REF_stress="-1.00490271 0.0 -0.1780631 0.0 5.5228792 0.0 -0.17806273 0.0 2.41143155" REF_electric_field="0.01 0.01 0.01" REF_polarisation="0.05588963343579062 0.0 0.009880685147639975" pbc="T T T"
Pr       1.84132742       0.00000000       3.25453163       0.01059234      -0.00000000       0.00197865
Pr       3.81559829       1.87551600      -0.00641465      -0.01839355      -0.00000000      -0.00907791
H        0.78289987       1.87551600       5.13067040      -0.05190025      -0.00000000       0.17311250
H        0.79373035       1.87551600       1.30055297      -0.01878844      -0.00000000      -0.03642187
H        1.64701951       0.00000000      -0.02393151      -0.09905682      -0.00000000      -0.03974095
H        4.01474918       1.87551600       3.27777627       0.12652581      -0.00000000      -0.00770816
H        4.86748516       0.00000000       1.92398116      -0.00475685      -0.00000000       0.06103925
H        4.87352521       0.00000000      -1.87806052       0.04626407      -0.00000000      -0.20508489
O        0.42665356       1.87551600       4.22669747      -0.04293408      -0.00000000      -0.13511240
O        1.74166775       1.87551600       1.52189086       0.05469000       0.00000000       0.03394573
O        2.27098889       0.00000000      -0.77154724       0.03152640       0.00000000      -0.00938124
O        3.38549935       1.87551600       4.01947531      -0.06606458       0.00000000       0.04708760
O        3.91445049       0.00000000       1.72254086      -0.02129333       0.00000000      -0.02988261
O        5.23077407       0.00000000      -0.97511985       0.05358927      -0.00000000       0.15524630
6
Lattice="4.137355 0.0 -1.005142 0.0 6.736289 0.0 -0.077936 0.0 4.598799" Properties=species:S:1:pos:R:3:REF_forces:R:3 REF_energy=-19.44625371 REF_stress="-1.14853633 0.0 -5.15931485 0.0 0.84138442 0.0 -5.1593153 0.0 -5.47977837" REF_electric_field="0.01 0.01 0.01" REF_polarisation="-3.978529162433293e-05 26.567036334764804 -0.0023280706392729764" pbc="T T T"
Ag       0.49853842       4.37332681       4.09525835      -0.03151278       0.03165404      -0.13855815
Ag       3.56088058       1.00518231      -0.50160135       0.03151278       0.03165404       0.13855815
Ag       1.93065228       6.65837708       1.74337498       0.00458419      -0.08431464      -0.05726804
Ag       2.12876672       3.29023258       1.85028202      -0.00458419      -0.08431464       0.05726804
S        1.09935495       1.59884472       3.26888646      -0.04303901       0.05266060       0.01489276
S        2.96006405       4.96698922       0.32477054       0.04303901       0.05266060      -0.01489276
36
Lattice="8.265307 0.0 -0.095898 0.0 3.96801 0.0 0.036956 0.0 8.184617" Properties=species:S:1:pos:R:3:REF_forces:R:3 REF_energy=-171.437594 REF_stress="-12.14635982 0.0 -1.22582744 0.0 -92.33797328 0.0 -1.22582745 0.0 -159.45713346" REF_electric_field="0.01 0.01 0.01" REF_polarisation="0.0 -5.717628020731777 7.007459956667162e-13" pbc="T T T"
H        0.24028177       2.44876611       8.16560954      -0.50198848       0.43331628      -0.39505488
H        8.06198123       0.46476111      -0.07689054       0.50198848       0.43331628       0.39505488
H        0.28974071       3.14642559       4.28766491       0.03206710      -0.01222933       0.25866311
H        8.01252229       1.16242059       3.80105409      -0.03206710      -0.01222933      -0.25866311
H        0.79664840       1.04160659       1.37581399       0.22393874       0.11724313      -0.03374565
H        7.50561460       3.02561159       6.71290501      -0.22393874       0.11724313       0.03374565