44
Lattice="7.346871 0.0 -2.533357 0.0 9.693216 0.0 0.022785 0.0 7.725388" Properties=species:S:1:pos:R:3:REF_forces:R:3 REF_energy=-293.1961003 REF_stress="-17.89964433 0.0 -10.84842966 0.0 -6.03596231 0.0 -10.84842981 0.0 -13.64431296" REF_electric_field="0.01 0.01 0.01" REF_polarisation="3.0244230455030205e-05 -1.5532833993530395 1.0411579352307352e-05" pbc="T T T"
Li       0.67097725       3.60692322       5.48207003       0.05790001      -0.11814894      -0.04006647
Li       6.69867875       8.45353122      -0.29003903      -0.05790001      -0.11814894       0.04006647
Li       0.88363603       6.35462039       6.60436228      -0.04943149       0.74728375      -0.07826077
Li       6.48601997       1.50801239      -1.41233128       0.04943149       0.74728375       0.07826077
Li       3.27726787       3.07799350       3.58940404       0.04594230      -0.09702753      -0.04444676
Li       4.09238813       7.92460150       1.60262696      -0.04594230      -0.09702753       0.04444676
Li       4.02995713       1.20305412       0.34339769       0.23547656       0.07997696      -0.00589371
Li       3.33969887       6.04966212       4.84863331      -0.23547656       0.07997696       0.00589371
Co       1.40238164       8.47408084       4.71415938       1.65268425       1.87049401       1.35819954
Co       5.96727436       3.62747284       0.47787162      -1.65268425       1.87049401      -1.35819954
Co       2.25313834       1.10301044       5.61646833      -1.28800012      -1.52633731      -1.36082225
Co       5.11651766       5.94961844      -0.42443733       1.28800012      -1.52633731       1.36082225
C        0.23800457       5.91960824       3.84615638      -0.45843524      -0.46885673      -0.21403072
C        7.13165143       1.07300024       1.34587462       0.45843524      -0.46885673       0.21403072
C        0.50282451       9.57491999       7.44594176       0.73897710       0.18975090      -0.79832027
C        6.86683149       4.72831199      -2.25391076      -0.73897710       0.18975090       0.79832027
C        3.22322682       0.11051236       2.92816260      -0.52991489       0.44897800       1.00073566
C        4.14642918       4.95712036       2.26386840       0.52991489       0.44897800      -1.00073566
C        3.49735212       3.66454939       6.41147046       0.22110332       0.23686991       0.18101968
C        3.87230388       8.51115739      -1.21943946      -0.22110332       0.23686991      -0.18101968
O        0.36573163       4.67100570       7.03680592       0.30388903      -0.31817853      -0.50148640
O        7.00392437       9.51761370      -1.84477492      -0.30388903      -0.31817853       0.50148640
O        0.08127458       4.63369651       3.94286452      -0.06402954      -0.12346302      -0.01440186
O        7.28838142       9.48030451       1.24916648       0.06402954      -0.12346302       0.01440186
O        0.42622552       1.78026574       4.73677352       0.36201820       0.08688826       0.25905454
O        6.94343048       6.62687374       0.45525748      -0.36201820       0.08688826      -0.25905454
O        0.61290662       8.60116859       6.60640137      -0.14194145      -1.17477634      -0.56463634
O        6.75674938       3.75456059      -1.41437037       0.14194145      -1.17477634       0.56463634
O        1.07114742       6.47764668       4.68107313       0.03918070       0.19625361      -0.13077318
O        6.29850858       1.63103868       0.51095787      -0.03918070       0.19625361       0.13077318
O        1.21408189       0.95755404      -0.41475137       0.26599741       0.25175567      -0.29195965
O        6.15557411       5.80416204       5.60678237      -0.26599741       0.25175567       0.29195965
O        2.64512108       3.13807205       5.57032174       0.02024118      -0.38865727       0.13611026
O        4.72453492       7.98468005      -0.37829074      -0.02024118      -0.38865727      -0.13611026
O        2.70013033       8.65684642       3.18109840      -0.94514045      -1.14120538       0.47985952
O        4.66952567       3.81023842       2.01093260       0.94514045      -1.14120538      -0.47985952
O        2.99845182       1.14141496       3.69972850       0.07945830       0.39994942       0.47659902
O        4.37120418       5.98802296       1.49230250      -0.07945830       0.39994942      -0.47659902
O        3.16225227       7.76337424       5.77089426      -0.38448469      -0.27279368      -0.31524082
O        4.20740373       2.91676624      -0.57886326       0.38448469      -0.27279368       0.31524082
O        3.57147514       4.95216712       6.44091784       0.24797277       0.72304352       0.08416172
O        3.79818086       0.10555912      -1.24888684      -0.24797277       0.72304352      -0.08416172
O        3.40341673       5.03362891       3.27515661      -0.83983684       0.39820072       1.19219989
O        3.96623927       0.18702091       1.91687439       0.83983684       0.39820072      -1.19219989
30
Lattice="5.252716 0.0 0.0 -2.626358 4.548986 0.0 0.0 0.0 13.949906" Properties=species:S:1:pos:R:3:REF_forces:R:3 REF_energy=-230.80243371 REF_stress="217.32336852 0.0 0.0 0.0 217.32341678 -0.0 0.0 0.0 159.03029428" REF_electric_field="0.01 0.01 0.01" REF_polarisation="0.04591388757570927 -0.07342744637891618 -12.017091901674474" pbc="T T T"
Li       0.00000000       0.00000000       3.53182325      -0.00000000       0.00000000       0.13423831
Li       2.62636063       1.51632715       8.18178727      -0.00000000       0.00000000       0.13423831
Li       0.00000000       0.00000000      10.50677625      -0.00000000       0.00000000       0.13423831
Li      -0.00000263       3.03265885      12.83176523      -0.00000000       0.00000000       0.13423831
Li       2.62636063       1.51632715       1.20683427      -0.00000000       0.00000000       0.13423831
Li      -0.00000263       3.03265885       5.85681223      -0.00000000       0.00000000       0.13423831
Nb       0.00000000       0.00000000      13.89487362      -0.00000000       0.00000000       0.08266388
Nb       2.62636063       1.51632715       4.59493164      -0.00000000       0.00000000       0.08266388
Nb       0.00000000       0.00000000       6.91992062      -0.00000000       0.00000000       0.08266388
Nb      -0.00000263       3.03265885       9.24490960      -0.00000000       0.00000000       0.08266388
Nb       2.62636063       1.51632715      11.56988464      -0.00000000       0.00000000       0.08266388
Nb      -0.00000263       3.03265885       2.26995660      -0.00000000       0.00000000       0.08266388
O       -1.13047378       4.08682722       8.01825252       0.82308083       0.93321277      -0.07230073
O        4.12224485       1.05416837      12.66821654       0.82308083       0.93321277      -0.07230073
O       -0.34769828       1.52654872       8.01825252      -1.21972629       0.24620261      -0.07230073
O       -1.47817469       3.48459151       1.04329952      -0.39664546      -1.17941537      -0.07230073
O        1.49588159       2.57050007       3.36828850       0.82308083       0.93321277      -0.07230073
O        2.27866234       3.04287587      12.66821654      -1.21972629       0.24620261      -0.07230073
O        3.77454394       0.45193266       5.69326354      -0.39664546      -1.17941537      -0.07230073
O        1.47817994       3.48459151       8.01825252       0.39664546      -1.17941537      -0.07230073
O        1.13047903       4.08682722       1.04329952      -0.82308083       0.93321277      -0.07230073
O        2.27865709       0.01022157       3.36828850      -1.21972629       0.24620261      -0.07230073
O        1.47818257       0.45193266      12.66821654       0.39664546      -1.17941537      -0.07230073
O        1.13048166       1.05416837       5.69326354      -0.82308083       0.93321277      -0.07230073
O        0.34770354       1.52654872       1.04329952       1.21972629       0.24620261      -0.07230073
O        1.14818069       1.96826436      10.34324150      -0.39664546      -1.17941537      -0.07230073
O        2.97406416       3.04287587       5.69326354       1.21972629       0.24620261      -0.07230073
O        2.97405891       0.01022157      10.34324150       1.21972629       0.24620261      -0.07230073
O        4.10453531       1.96826436       3.36828850       0.39664546      -1.17941537      -0.07230073
O        3.75683441       2.57050007      10.34324150      -0.82308083       0.93321277      -0.07230073
18
Lattice="8.194617 0.0 -4.132925 0.0 5.314037 0.0 -2.5e-05 0.0 5.46243" Properties=species:S:1:pos:R:3:REF_forces:R:3 REF_energy=-94.32100873 REF_stress="-2.11537899 0.0 -0.22296535 0.0 -1.58872458 0.0 -0.22296564 0.0 -1.50331178" REF_electric_field="0.01 0.01 0.01" REF_polarisation="-0.00015087395485405977 39.17353473852584 -5.854985127706866e-07" pbc="T T T"
Na       1.08614973       3.42272872       4.29695346       0.00275201       0.00158318       0.01239474
Na       5.18345823       0.76571022       2.23049096       0.00275201       0.00158318       0.01239474
Na       7.10844227       3.42272872      -2.96744846      -0.00275201       0.00158318      -0.01239474
Na       3.01113377       0.76571022      -0.90098596      -0.00275201       0.00158318      -0.01239474
Na       1.30347982       0.50007214       2.25440188       0.00341605       0.01155108       0.00548336
Na       5.40078832       3.15709064       0.18793938       0.00341605       0.01155108       0.00548336
Na       6.89111218       0.50007214      -0.92489688      -0.00341605       0.01155108      -0.00548336
Na       2.79380368       3.15709064       1.14156562      -0.00341605       0.01155108      -0.00548336
C        0.00000000       1.19466460       0.00000000      -0.00000000      -0.00762211      -0.00000000
C        4.09730850       3.85168310      -2.06646250      -0.00000000      -0.00762211       0.00000000
O        0.68109796       0.39076240       4.50999608      -0.01396424       0.01366812       0.01256375
O        4.77840646       3.04778090       2.44353358      -0.01396424       0.01366812       0.01256375
O        7.51349404       0.39076240      -3.18049108       0.01396424       0.01366812      -0.01256375
O        3.41618554       3.04778090      -1.11402858       0.01396424       0.01366812      -0.01256375
O        0.93787679       2.04395931       0.68974276      -0.01747625      -0.02299133      -0.02351537
O        5.03518529       4.70097781      -1.37671974      -0.01747625      -0.02299133      -0.02351537
O        7.25671521       2.04395931       0.63976224       0.01747625      -0.02299133       0.02351537
O        3.15940671       4.70097781       2.70622474       0.01747625      -0.02299133       0.02351537
12
Lattice="5.067721 0.0 0.0 0.0 4.602264 0.0 0.0 0.0 4.815321" Properties=species:S:1:pos:R:3:REF_forces:R:3 REF_energy=-34.84270401 REF_stress="0.58076185 0.0 0.0 0.0 -2.16137721 0.0 0.0 0.0 -2.43255646" REF_electric_field="0.01 0.01 0.01" REF_polarisation="0.0 0.0001491801458591956 19.30936420535714" pbc="T T T"
Mg       0.24044816       1.19894040       1.15025499       0.04445905       0.15550638       0.00992846
Mg       4.82727284       3.40332360       3.55791549      -0.04445905      -0.15550638       0.00992846
Mg       2.77430866       3.40332360       1.15025499       0.04445905      -0.15550638       0.00992846
Mg       2.29341234       1.19894040       3.55791549      -0.04445905       0.15550638       0.00992846
H        0.63134175       0.33740578       4.16598459       0.00859900       0.02629302       0.08420927
H        4.43637925       4.26485822       1.75832409      -0.00859900      -0.02629302       0.08420927
H        3.16520225       4.26485822       4.16598459       0.00859900      -0.02629302       0.08420927
H        1.90251875       0.33740578       1.75832409      -0.00859900       0.02629302       0.08420927
H        1.42066970       2.44424400       0.16552184       0.20242133      -0.01178642      -0.09413773
H        3.64705130       2.15802000       2.57318234      -0.20242133       0.01178642      -0.09413773
H        3.95453020       2.15802000       0.16552184       0.20242133       0.01178642      -0.09413773
H        1.11319080       2.44424400       2.57318234      -0.20242133      -0.01178642      -0.09413773
28
Lattice="11.475386 0.0 0.0 0.0 6.802039 0.0 0.0 0.0 5.426127" Properties=species:S:1:pos:R:3:REF_forces:R:3 REF_energy=-229.27016487 REF_stress="-5.24571816 0.0 0.0 0.0 -5.56632737 0.0 0.0 0.0 -5.69157594" REF_electric_field="0.01 0.01 0.01" REF_polarisation="-6.168811673981744e-13 -0.0001891402747678132 4.020318500878774" pbc="T T T"
Nb       0.72584112       4.55004033       5.38677130      -0.00756341      -0.01133025      -0.01949726
Nb      10.74954488       2.25199867       2.67370780       0.00756341       0.01133025      -0.01949726
Nb       6.46353412       5.65301817       5.38677130      -0.00756341       0.01133025      -0.01949726
Nb       5.01185188       1.14902083       2.67370780       0.00756341      -0.01133025      -0.01949726
P        1.76346847       6.61141186       2.61610404      -0.00018708      -0.01054186       0.00375892
P        9.71191753       0.19062714       5.32916754       0.00018708       0.01054186       0.00375892
P        7.50116147       3.59164664       2.61610404      -0.00018708       0.01054186       0.00375892
P        3.97422453       3.21039236       5.32916754       0.00018708      -0.01054186       0.00375892
O        0.04746220       3.48161686       1.37962535      -0.00955153       0.00716485       0.00917375
O       11.42792380       3.32042214       4.09268885       0.00955153      -0.00716485       0.00917375
O        5.78515520       6.72144164       1.37962535      -0.00955153      -0.00716485       0.00917375
O        5.69023080       0.08059736       4.09268885       0.00955153       0.00716485       0.00917375
O        0.92887512       1.11005195       2.67292101       0.02224364      -0.03283138      -0.01403886
O       10.54651088       5.69198705       5.38598451      -0.02224364       0.03283138      -0.01403886
O        6.66656812       2.29096755       2.67292101       0.02224364       0.03283138      -0.01403886
O        4.80881788       4.51107145       5.38598451      -0.02224364      -0.03283138      -0.01403886
O        1.42165115       5.70383620       3.80092057       0.01364839       0.05109707      -0.02959420
O       10.05373485       1.09820280       1.08785707      -0.01364839      -0.05109707      -0.02959420
O        7.15934415       4.49922230       3.80092057       0.01364839      -0.05109707      -0.02959420
O        4.31604185       2.30281670       1.08785707      -0.01364839       0.05109707      -0.02959420
O        1.52581322       5.91029169       1.27161286       0.00239056      -0.00214170       0.05908394
O        9.94957278       0.89174731       3.98467636      -0.00239056       0.00214170       0.05908394
O        7.26350622       4.29276681       1.27161286       0.00239056       0.00214170       0.05908394
O        4.21187978       2.50927219       3.98467636      -0.00239056      -0.00214170       0.05908394
O        2.47871780       3.60525072       5.40348377       0.03620998      -0.01499398      -0.00888629
O        8.99666820       3.19678828       2.69042027      -0.03620998       0.01499398      -0.00888629
O        8.21641080       6.59780778       5.40348377       0.03620998       0.01499398      -0.00888629
O        3.25897520       0.20423122       2.69042027      -0.03620998      -0.01499398      -0.00888629
18
Lattice="7.52228 0.0 -3.951266 0.0 4.508359 0.0 -0.066077 0.0 4.593889" Properties=species:S:1:pos:R:3:REF_forces:R:3 REF_energy=-104.77464283 REF_stress="-2.56608119 0.0 3.67265192 0.0 -5.49608647 0.0 3.67265124 0.0 -15.68051029" REF_electric_field="0.01 0.01 0.01" REF_polarisation="0.00013732890289774367 33.75720216740005 0.0018238394401218004" pbc="T T T"
Li       0.93821243       2.80763918       3.53091243       0.04307064       0.21763057       0.21389669
Li       4.69935243       0.55345968       1.55527943       0.04307064       0.21763057       0.21389669
Li       6.51799057       2.80763918      -2.88828943      -0.04307064       0.21763057      -0.21389669
Li       2.75685057       0.55345968      -0.91265643      -0.04307064       0.21763057      -0.21389669
Li       1.10476034       0.27318852       1.73137467      -0.11059876       0.22267221       0.21411221
Li       4.86590034       2.52736802      -0.24425833      -0.11059876       0.22267221       0.21411221
Li       6.35144266       0.27318852      -1.08875167       0.11059876       0.22267221      -0.21411221
Li       2.59030266       2.52736802       0.88688133       0.11059876       0.22267221      -0.21411221
C        0.00000000       1.11348352       0.00000000       0.00000000      -0.22420036      -0.00000000
C        3.76114000       3.36766302      -1.97563300      -0.00000000      -0.22420036      -0.00000000
O        0.71111403       0.30876849       3.73433668       0.13533242      -0.16777485      -0.27104972
O        4.47225403       2.56294799       1.75870368       0.13533242      -0.16777485      -0.27104972
O        6.74508897       0.30876849      -3.09171368      -0.13533242      -0.16777485       0.27104972
O        2.98394897       2.56294799      -1.11608068      -0.13533242      -0.16777485       0.27104972
O        0.83753586       1.95408058       0.79549634      -0.18618850      -0.16042775      -0.11339050
O        4.59867586       4.20826008      -1.18013666      -0.18618850      -0.16042775      -0.11339050
O        6.61866714       1.95408058      -0.15287334       0.18618850      -0.16042775       0.11339050
O        2.85752714       4.20826008       1.82275966       0.18618850      -0.16042775       0.11339050
14
Lattice="7.636335 0.0 -2.807105 0.0 8.646346 0.0 0.021173 0.0 11.276033" Properties=species:S:1:pos:R:3:REF_forces:R:3 REF_energy=-31.05843144 REF_stress="0.04883523 0.0 0.0145952 0.0 -0.32421777 0.0 0.01459493 0.0 -0.01307076" REF_electric_field="0.01 0.01 0.01" REF_polarisation="2.4819374975142826e-13 -0.03753553707805347 -3.4565112004610416e-13" pbc="T T T"
Cs       1.51925652       2.09338412       5.47685326       0.00359807      -0.00049303       0.00147167
Cs       6.13825148       6.41655712       2.99207474      -0.00359807      -0.00049303      -0.00147167
Cs       2.29089316       2.09888320       0.17544574      -0.01873151      -0.00041666      -0.00496370
Cs       5.36661484       6.42205620       8.29348226       0.01873151      -0.00041666       0.00496370
Hg       1.41853711       6.41856308       2.59798149       0.01803772       0.00194226      -0.00026573
Hg       6.23897089       2.09539008       5.87094651      -0.01803772       0.00194226       0.00026573
I        0.31362889       4.36854902       8.74682789      -0.00641589       0.01379595      -0.00972506
I        7.34387911       0.04537602      -0.27789989       0.00641589       0.01379595       0.00972506
I        0.31512676       8.47066954       8.73875097      -0.00856478      -0.01549510      -0.00655447
I        7.34238124       4.14749654      -0.26982297       0.00856478      -0.01549510       0.00655447
I        2.73129594       6.42614592       5.16171649       0.01841865       0.00079013       0.03363304
I        4.92621206       2.10297292       3.30721151      -0.01841865       0.00079013      -0.03363304
I        3.24613373       6.42113969       0.44083721       0.01658522      -0.00012356      -0.02440366
I        4.41137427       2.09796669       8.02809079      -0.01658522      -0.00012356       0.02440366
6
Lattice="3.701441 0.0 0.0 0.0 3.840031 0.0 0.0 0.0 6.027866" Properties=species:S:1:pos:R:3:REF_forces:R:3 REF_energy=-33.69297316 REF_stress="3.71683434 0.0 0.0 0.0 -16.20817205 0.0 0.0 0.0 11.13635281" REF_electric_field="0.01 0.01 0.01" REF_polarisation="-1.1478327127441357e-13 -0.0001979766315735541 4.1669934681490615" pbc="T T T"
Ca       0.00000000       0.12362212       4.11764732      -0.00000000       0.08029812       0.01287873
Ca       0.00000000       3.71640888       1.10371432      -0.00000000      -0.08029812       0.01287873
F        0.00000000       1.80658482       2.47560237      -0.00000000       0.16406726      -0.08757180
F        0.00000000       2.03344618       5.48953537      -0.00000000      -0.16406726      -0.08757180
F        1.85072050       0.07529533       5.66140791       0.00000000       0.08112810       0.07469307
F        1.85072050       3.76473567       2.64747491       0.00000000      -0.08112810       0.07469307
28
Lattice="9.308732 0.0 0.0 0.0 9.620729 0.0 0.0 0.0 5.537051" Properties=species:S:1:pos:R:3:REF_forces:R:3 REF_energy=-168.3117942 REF_stress="11.00716046 0.0 0.0 0.0 29.87082207 0.0 0.0 0.0 27.28218543" REF_electric_field="0.01 0.01 0.01" REF_polarisation="-3.295185969863021e-05 -0.00016114055965590023 0.654400504007934" pbc="T T T"
Cs       9.27634692       7.71804705       4.19732275       0.01551730      -0.00288457       0.00653139
Cs       0.03238508       1.90268195       1.42879725      -0.01551730       0.00288457       0.00653139
Cs       4.62198092       6.71304645       4.19732275       0.01551730       0.00288457       0.00653139
Cs       4.68675108       2.90768255       1.42879725      -0.01551730      -0.00288457       0.00653139
Zn       1.57258926       3.95944950       4.16539058      -0.12652087       0.03350155       0.01630395
Zn       7.73614274       5.66127950       1.39686508       0.12652087      -0.03350155       0.01630395
Zn       6.22695526       0.85091500       4.16539058      -0.12652087      -0.03350155       0.01630395
Zn       3.08177674       8.76981400       1.39686508       0.12652087       0.03350155       0.01630395
P        1.89123646       5.58930682       1.39806662      -0.48472697      -0.03266491      -0.16533403
P        7.41749554       4.03142218       4.16659212       0.48472697       0.03266491      -0.16533403
P        6.54560246       8.84178668       1.39806662      -0.48472697       0.03266491      -0.16533403
P        2.76312954       0.77894232       4.16659212       0.48472697      -0.03266491      -0.16533403
O        0.37207933       5.82322523       1.40909642      -0.15023231       0.02505257      -0.06863784
O        8.93665267       3.79750377       4.17762192       0.15023231      -0.02505257      -0.06863784
O        5.02644533       8.60786827       1.40909642      -0.15023231      -0.02505257      -0.06863784
O        4.28228667       1.01286073       4.17762192       0.15023231       0.02505257      -0.06863784
O        2.02479815       2.08536998       3.89043170      -0.32032593       0.62879131      -0.26808727
O        7.28393385       7.53535902       1.12190620       0.32032593      -0.62879131      -0.26808727
O        6.67916415       2.72499452       3.89043170      -0.32032593      -0.62879131      -0.26808727
O        2.62956785       6.89573448       1.12190620       0.32032593       0.62879131      -0.26808727
O        2.31715750       4.57918800       0.30674709       0.09801441      -0.46656169      -0.30723721
O        6.99157450       5.04154100       3.07527259      -0.09801441       0.46656169      -0.30723721
O        6.97152350       0.23117650       0.30674709       0.09801441       0.46656169      -0.30723721
O        2.33720850       9.38955250       3.07527259      -0.09801441      -0.46656169      -0.30723721
O        2.28526578       0.21876576       5.51813643      -0.32169954      -0.20241892       0.78646102
O        7.02346622       9.40196324       2.74961093       0.32169954       0.20241892       0.78646102
O        6.93963178       4.59159874       5.51813643      -0.32169954       0.20241892       0.78646102
O        2.36910022       5.02913026       2.74961093       0.32169954      -0.20241892       0.78646102
24
Lattice="5.561391 0.0 0.0 0.0 4.90808 0.0 0.0 0.0 11.930356" Properties=species:S:1:pos:R:3:REF_forces:R:3 REF_energy=-128.96936427 REF_stress="-9.15452208 0.0 0.0 0.0 420.76429617 0.0 0.0 0.0 187.49975973" REF_electric_field="0.01 0.01 0.01" REF_polarisation="0.0 -3.4353728407636747e-13 -3.0540761007908386" pbc="T T T"
Sb       0.07114131       4.72412025      11.90894101      -0.18265149       0.75264589       0.20113279
Sb       5.49024969       0.18395975       5.94376301       0.18265149      -0.75264589       0.20113279
Sb       2.85183681       2.63799975      11.90894101      -0.18265149      -0.75264589       0.20113279
Sb       2.70955419       2.27008025       5.94376301       0.18265149       0.75264589       0.20113279
Sb       0.25092440       2.45038348       2.95050827       5.18735516     -15.85154297      -7.77052897
Sb       5.31046660       2.45769652       8.91568627      -5.18735516      15.85154297      -7.77052897
Sb       3.03161990       0.00365652       2.95050827       5.18735516      15.85154297      -7.77052897
Sb       2.52977110       4.90442348       8.91568627      -5.18735516     -15.85154297      -7.77052897
O        0.08358771       1.07617998       9.63711490       4.05241656     -14.65139395       7.56398443
O        5.47780329       3.83190002       3.67193690      -4.05241656      14.65139395       7.56398443
O        2.86428321       1.37786002       9.63711490       4.05241656      14.65139395       7.56398443
O        2.69710779       3.53021998       3.67193690      -4.05241656     -14.65139395       7.56398443
O        1.24808181       3.54980812       8.19290952      -0.36313197      -0.15877135      -0.36737157
O        4.31330919       1.35827188       2.22773152       0.36313197       0.15877135      -0.36737157
O        4.02877731       3.81231188       8.19290952      -0.36313197       0.15877135      -0.36737157
O        1.53261369       1.09576812       2.22773152       0.36313197      -0.15877135      -0.36737157
O        1.18899203       1.36757760       4.82009050      -1.30293449       0.85537859      -2.20975395
O        4.37239897       3.54050240      10.78526850       1.30293449      -0.85537859      -2.20975395
O        3.96968753       1.08646240       4.82009050      -1.30293449      -0.85537859      -2.20975395
O        1.59170347       3.82161760      10.78526850       1.30293449       0.85537859      -2.20975395
O        1.28578804       3.52243085       1.10421410      -1.22345090      -1.05720098       2.58253727
O        4.27560296       1.38564915       7.06939210       1.22345090       1.05720098       2.58253727
O        4.06648354       3.83968915       1.10421410      -1.22345090       1.05720098       2.58253727
O        1.49490746       1.06839085       7.06939210       1.22345090      -1.05720098       2.58253727
8
Lattice="7.61715 0.0 0.0 0.0 7.61715 0.0 0.0 0.0 3.080145" Properties=species:S:1:pos:R:3:REF_forces:R:3 REF_energy=-22.40164202 REF_stress="1.57848916 0.0 0.0 0.0 1.57848916 0.0 0.0 0.0 -7.05155493" REF_electric_field="0.01 0.01 0.01" REF_polarisation="0.0 -7.870880306748602e-14 6.538631232748697e-05" pbc="T T T"
H        0.00000000       1.90428750       2.57192107       0.00000000      -0.00000000       0.00000000
H        3.80857500       5.71286250       2.57192107       0.00000000      -0.00000000       0.00000000
H        0.00000000       5.71286250       1.03184857       0.00000000      -0.00000000      -0.00000000
H        3.80857500       1.90428750       1.03184857       0.00000000       0.00000000      -0.00000000
Cl       0.00000000       1.90428750       1.03184857      -0.00000000       0.00000000      -0.00000000
Cl       3.80857500       5.71286250       1.03184857      -0.00000000       0.00000000      -0.00000000
Cl       0.00000000       5.71286250       2.57192107       0.00000000       0.00000000       0.00000000
Cl       3.80857500       1.90428750       2.57192107      -0.00000000      -0.00000000       0.00000000
16
Lattice="5.829802 0.0 0.0 0.0 4.67087 0.0 0.0 0.0 9.500516" Properties=species:S:1:pos:R:3:REF_forces:R:3 REF_energy=-105.12739094 REF_stress="-12.17006263 0.0 0.0 0.0 -6.74370951 0.0 0.0 0.0 -5.88171903" REF_electric_field="0.01 0.01 0.01" REF_polarisation="0.0 -2.3498309716534155e-13 -0.07019095118785254" pbc="T T T"
Cr       0.35750678       2.52935084       2.95639907       0.00858549       0.10924129       0.05467809
Cr       5.47229522       2.14151916       7.70665707      -0.00858549      -0.10924129       0.05467809
Cr       3.27240778       4.47695416       2.95639907       0.00858549      -0.10924129       0.05467809
Cr       2.55739422       0.19391584       7.70665707      -0.00858549       0.10924129       0.05467809
O        1.23268248       1.33793334       7.70097576      -0.09251398      -0.00666852       0.00487942
O        4.59711952       3.33293666       2.95071776       0.09251398       0.00666852       0.00487942
O        4.14758348       0.99750166       7.70097576      -0.09251398       0.00666852       0.00487942
O        1.68221852       3.67336834       2.95071776       0.09251398      -0.00666852       0.00487942
O        2.44547368       3.91892999       6.43017724       0.00387259       0.01659401       0.00433891
O        3.38432832       0.75194001       1.67991924      -0.00387259      -0.01659401       0.00433891
O        5.36037468       3.08737501       6.43017724       0.00387259      -0.01659401       0.00433891
O        0.46942732       1.58349499       1.67991924      -0.00387259       0.01659401       0.00433891
O        2.44958952       3.92878086       8.99277042       0.00011425       0.06905309      -0.06389642
O        3.38021248       0.74208914       4.24251242      -0.00011425      -0.06905309      -0.06389642
O        5.36449052       3.07752414       8.99277042       0.00011425      -0.06905309      -0.06389642
O        0.46531148       1.59334586       4.24251242      -0.00011425       0.06905309      -0.06389642
27