4
Lattice="3.91375 0.0 0.0 0.0 3.91375 0.0 0.0 0.0 6.032769" Properties=species:S:1:pos:R:3:REF_forces:R:3:REF_bec:R:9 REF_energy=-12.46157379 REF_electric_field="0.0 0.0 0.0" REF_polarisability="0.32754087288312056 0.0 0.0 0.0 0.32754087288312056 0.0 0.0 0.0 0.25194227491447035" REF_piezoelectric="-3e-05 -0.00013 -5e-05 -1e-05 0.00014 -0.00016 -1e-05 -0.00032 -0.00028 -0.00018 2e-05 -5e-05 0.00061 0.00055 0.00026 -0.00024 -0.00078 -0.00027" REF_dielectric_ionic="9.786 0.0 0.001 0.0 9.841 0.001 0.001 0.001 0.682" REF_stress="-0.0007053317626340938 1.1597348106803684e-07 1.3457317826316894e-07 9.136945209380502e-08 -0.0007053144174802329 1.466255323852495e-07 1.2226492226692716e-07 1.5893378838149126e-07 -0.004220489371904335" pbc="T T T"
Cu       0.97843750       2.93531250       0.00000000      -0.00000118       0.00000125      -0.00000031       1.13756000       0.00000000      -0.00007000       0.00000000       1.13988000       0.00004000      -0.00002000       0.00126000       0.76914000
Cu       2.93531250       0.97843750       0.00000000       0.00000110      -0.00000112       0.00000017       1.13983000       0.00000000       0.00001000       0.00000000       1.13759000      -0.00010000       0.00001000      -0.00126000       0.76914000
Br       0.97843750       0.97843750       1.58629851       0.00000008      -0.00000017       0.02406263      -1.14015000       0.00000000       0.00001000       0.00000000      -1.14044000      -0.00043000       0.00005000       0.00018000      -0.75677000
Br       2.93531250       2.93531250       4.44647049       0.00000000       0.00000004      -0.02406249      -1.14106000       0.00000000       0.00005000       0.00000000      -1.14136000       0.00049000      -0.00005000      -0.00018000      -0.75618000
36
Lattice="5.484011 0.0 0.0 0.0 9.41829 0.0 0.0 0.0 10.311167" Properties=species:S:1:pos:R:3:REF_forces:R:3:REF_bec:R:9 REF_energy=-259.26748604 REF_electric_field="0.0 0.0 0.0" REF_polarisability="0.24892979015162692 0.0 0.0 0.0 0.24373958830245715 0.0 0.0 0.0 0.24890599648763467" REF_piezoelectric="0.0 0.0 0.0 0.0 -0.00033 0.0 0.0 0.0 0.0 0.0 0.0 0.07236 0.0 0.0 0.0 -0.03631 0.0 0.0" REF_dielectric_ionic="9.898267 0.0 0.0 0.0 9.533753 -0.0 0.0 -0.0 8.976166" REF_stress="-0.000690875921936309 -0.0 -0.0 -0.0 -0.0008284125375249016 -0.0 -0.0 -0.0 -0.0006317468354360349" pbc="T T T"
Nd       0.13586089       0.97921961       4.72950546      -0.00467427      -0.00540286       0.00192802       3.82405000       0.07803000       0.06029000       0.02140000       3.87103000       0.11137000       0.25815000      -0.02898000       3.95457000
Nd       2.87786639       3.72992539       5.58166154      -0.00467427       0.00540286      -0.00192802       3.82405000      -0.07803000      -0.06029000      -0.02154000       3.87081000       0.11163000      -0.25821000      -0.02881000       3.95459000
Nd       5.34815011       5.68836461       0.42607804       0.00467427      -0.00540286      -0.00192802       3.82436000      -0.07784000       0.06021000      -0.02140000       3.87103000      -0.11137000       0.25821000       0.02881000       3.95459000
Nd       2.60614461       8.43907039       9.88508896       0.00467427       0.00540286       0.00192802       3.82436000       0.07784000      -0.06021000       0.02154000       3.87081000      -0.11163000      -0.25815000       0.02898000       3.95457000
Nd       0.18504150       2.04437170       8.89257727       0.00504881       0.00514705       0.00241926       4.44573000      -0.00139000      -0.12455000       0.14110000       4.16078000       0.18446000      -0.30429000       0.23742000       4.03687000
Nd       2.92704700       2.66477330       1.41858973       0.00504881      -0.00514705      -0.00241926       4.44573000       0.00139000       0.12455000      -0.14119000       4.16080000       0.18431000       0.30426000       0.23742000       4.03702000
Nd       5.29896950       6.75351670       6.57417323      -0.00504881       0.00514705      -0.00241926       4.44578000       0.00149000      -0.12424000      -0.14110000       4.16078000      -0.18446000      -0.30426000      -0.23742000       4.03702000
Nd       2.55696400       7.37391830       3.73699377      -0.00504881      -0.00514705       0.00241926       4.44578000      -0.00149000       0.12424000       0.14119000       4.16080000      -0.18431000       0.30429000      -0.23742000       4.03687000
Te       2.96838547       0.04517012       6.63420485      -0.00924253      -0.00469972       0.01045353       5.10457000       0.11592000       0.18066000       0.08067000       4.85142000      -0.01603000       0.05419000       0.20611000       4.95347000
Te       0.22637997       4.66397488       3.67696215      -0.00924253       0.00469972      -0.01045353       5.10457000      -0.11592000      -0.18066000      -0.08071000       4.85143000      -0.01599000      -0.05413000       0.20612000       4.95349000
Te       2.51562553       4.75431512       8.83254565       0.00924253      -0.00469972      -0.01045353       5.10457000      -0.11579000       0.18047000      -0.08067000       4.85142000       0.01603000       0.05413000      -0.20612000       4.95349000
Te       5.25763103       9.37311988       1.47862135       0.00924253       0.00469972       0.01045353       5.10457000       0.11579000      -0.18047000       0.08071000       4.85143000       0.01599000      -0.05419000      -0.20611000       4.95347000
O        1.38504730       3.90171500      10.22652263       0.00271727       0.00079891      -0.00196915      -2.34904000       0.15120000       0.12911000       0.22429000      -2.23798000       0.20509000       0.09320000       0.16175000      -2.07791000
O        4.12705280       0.80743000       0.08464437       0.00271727      -0.00079891       0.00196915      -2.34904000      -0.15120000      -0.12911000      -0.22433000      -2.23786000       0.20503000      -0.09323000       0.16171000      -2.07785000
O        4.09896370       8.61086000       5.24022787      -0.00271727       0.00079891       0.00196915      -2.34890000      -0.15118000       0.12924000      -0.22429000      -2.23798000      -0.20509000       0.09323000      -0.16171000      -2.07785000
O        1.35695820       5.51657500       5.07093913      -0.00271727      -0.00079891      -0.00196915      -2.34890000       0.15118000      -0.12924000       0.22433000      -2.23786000      -0.20503000      -0.09320000      -0.16175000      -2.07791000
O        1.21602460       1.05537590       0.66875136       0.00176771      -0.00100953       0.00257778      -2.43405000      -0.52408000       0.08529000      -0.56033000      -2.25042000       0.13274000       0.11177000       0.24362000      -1.99653000
O        3.95803010       3.65376910       9.64241564       0.00176771       0.00100953      -0.00257778      -2.43405000       0.52408000      -0.08529000       0.56034000      -2.25048000       0.13284000      -0.11175000       0.24366000      -1.99649000
O        4.26798640       5.76452090       4.48683214      -0.00176771      -0.00100953      -0.00257778      -2.43410000       0.52399000       0.08561000       0.56033000      -2.25042000      -0.13274000       0.11175000      -0.24366000      -1.99649000
O        1.52598090       8.36291410       5.82433486      -0.00176771       0.00100953       0.00257778      -2.43410000      -0.52399000      -0.08561000      -0.56034000      -2.25048000      -0.13284000      -0.11177000      -0.24362000      -1.99653000
O        1.69061640       3.39792125       3.34293190       0.00636849       0.01166944      -0.00935140      -2.35968000       0.61430000       0.46153000       0.55251000      -1.87314000      -0.40772000       0.22468000      -0.36961000      -2.33340000
O        4.43262190       1.31122375       6.96823510       0.00636849      -0.01166944       0.00935140      -2.35968000      -0.61430000      -0.46153000      -0.55245000      -1.87308000      -0.40772000      -0.22475000      -0.36960000      -2.33333000
O        3.79339460       8.10706625       1.81265160      -0.00636849       0.01166944       0.00935140      -2.35947000      -0.61409000       0.46160000      -0.55251000      -1.87314000       0.40772000       0.22475000       0.36960000      -2.33333000
O        1.05138910       6.02036875       8.49851540      -0.00636849      -0.01166944      -0.00935140      -2.35947000       0.61409000      -0.46160000       0.55245000      -1.87308000       0.40772000      -0.22468000       0.36961000      -2.33340000
O        0.91648792       8.92104196       2.96518229      -0.00417393       0.00707772       0.00780799      -2.09375000       0.68864000      -0.42451000       0.72775000      -1.90759000       0.05834000      -0.60926000       0.11330000      -2.53923000
O        3.65849342       5.20639304       7.34598471      -0.00417393      -0.00707772      -0.00780799      -2.09375000      -0.68864000       0.42451000      -0.72774000      -1.90768000       0.05836000       0.60923000       0.11333000      -2.53924000
O        4.56752308       4.21189696       2.19040121       0.00417393       0.00707772      -0.00780799      -2.09366000      -0.68854000      -0.42436000      -0.72775000      -1.90759000      -0.05834000      -0.60923000      -0.11333000      -2.53924000
O        1.82551758       0.49724804       8.12076579       0.00417393      -0.00707772       0.00780799      -2.09366000       0.68854000       0.42436000       0.72774000      -1.90768000      -0.05836000       0.60926000      -0.11330000      -2.53923000
O        0.99269374       5.99482635       2.50476807      -0.00288160       0.00889782      -0.00398845      -1.81707000      -0.58157000      -0.39703000      -0.69323000      -1.95934000       0.08534000      -0.45852000       0.06873000      -2.43873000
O        3.73469924       8.13260865       7.80639893      -0.00288160      -0.00889782       0.00398845      -1.81707000       0.58157000       0.39703000       0.69328000      -1.95934000       0.08528000       0.45850000       0.06867000      -2.43872000
O        4.49131726       1.28568135       2.65081543       0.00288160       0.00889782       0.00398845      -1.81706000       0.58157000      -0.39688000       0.69323000      -1.95934000      -0.08534000      -0.45850000      -0.06867000      -2.43872000
O        1.74931176       3.42346365       7.66035157       0.00288160      -0.00889782      -0.00398845      -1.81706000      -0.58157000       0.39688000      -0.69328000      -1.95934000      -0.08528000       0.45852000      -0.06873000      -2.43873000
O        0.40313513       8.00286229       0.24347759       0.00318393      -0.00476800       0.01882457      -2.32119000      -0.06899000       0.54574000      -0.05433000      -2.65465000      -0.32925000       0.58885000      -0.27696000      -1.55926000
O        3.14514063       6.12457271      10.06768941       0.00318393       0.00476800      -0.01882457      -2.32119000       0.06899000      -0.54574000       0.05429000      -2.65471000      -0.32933000      -0.58891000      -0.27701000      -1.55931000
O        5.08087587       3.29371729       4.91210591      -0.00318393      -0.00476800      -0.01882457      -2.32111000       0.06897000       0.54602000       0.05433000      -2.65465000       0.32925000       0.58891000       0.27701000      -1.55931000
O        2.33887037       1.41542771       5.39906109      -0.00318393       0.00476800       0.01882457      -2.32111000      -0.06897000      -0.54602000      -0.05429000      -2.65471000       0.32933000      -0.58885000       0.27696000      -1.55926000
4
Lattice="-2.813708 -2.813708 0.0 0.0 2.813708 -2.813708 2.723303 -2.723303 -5.53701" Properties=species:S:1:pos:R:3:REF_forces:R:3:REF_bec:R:9 REF_energy=-17.01466022 REF_electric_field="0.0 0.0 0.0" REF_polarisability="0.6762698046076506 0.08882938712029419 0.08882946669776573 0.08882938712029419 0.6762698046076506 -0.08882946669776573 0.08882946669776573 -0.08882946669776573 0.676269725030179" REF_piezoelectric="0.0 0.0 0.0 0.0 0.0 0.0 0.0 0.0 0.0 0.0 0.0 0.0 0.0 0.0 0.0 0.0 0.0 0.0" REF_dielectric_ionic="117.228453 45.387101 45.387103 45.387101 117.228453 -45.387103 45.387103 -45.387103 117.228448" REF_stress="1.4240982987635418e-05 3.6067552883867424e-05 3.60675466423583e-05 3.6067552883867424e-05 1.4240982987635418e-05 -3.60675466423583e-05 3.60675466423583e-05 -3.60675466423583e-05 1.4240995470653668e-05" pbc="T T T"
Li      -0.04520250      -2.76850550      -2.76850500      -0.00000000      -0.00000000       0.00000000       1.80026000      -0.16508000      -0.16508000      -0.16508000       1.80026000       0.16508000      -0.16508000       0.16508000       1.80026000
Bi       0.00000000       0.00000000       0.00000000       0.00000000      -0.00000000      -0.00000000       4.63328000       1.25361000       1.25361000       1.25361000       4.63328000      -1.25361000       1.25361000      -1.25361000       4.63328000
S        0.02552342      -0.02552905      -2.83923116      -0.00301774       0.00301774       0.00301774      -3.21677000      -0.54427000      -0.54427000      -0.54427000      -3.21677000       0.54427000      -0.54427000       0.54427000      -3.21677000
S       -0.11592842      -2.69777395      -5.51148684       0.00301774      -0.00301774      -0.00301774      -3.21677000      -0.54427000      -0.54427000      -0.54427000      -3.21677000       0.54427000      -0.54427000       0.54427000      -3.21677000
3
Lattice="3.792746 0.0 2.189743 1.264249 3.575835 2.189743 0.0 0.0 4.379485" Properties=species:S:1:pos:R:3:REF_forces:R:3:REF_bec:R:9 REF_energy=-26.39598648 REF_electric_field="0.0 0.0 0.0" REF_polarisability="1.47791280155134 0.0 0.0 0.0 1.47791280155134 0.0 0.0 0.0 1.47791280155134" REF_piezoelectric="0.42543 0.0 -0.42543 -0.30083 -0.0 0.0 -0.30083 0.60165 -0.30083 0.0 0.0 -0.0 0.0 0.0 -0.0 -0.0 -0.30083 -0.42543" REF_dielectric_ionic="12.517 -0.007 0.016 -0.007 12.529 0.011 0.016 0.011 12.508" REF_stress="0.00033698548149480023 3.120754562941629e-11 4.369056388118281e-11 3.120754562941629e-11 0.00033698543780423637 3.120754562941629e-11 4.369056388118281e-11 3.120754562941629e-11 0.00033698535042310865" pbc="T T T"
Ta       0.00000000       0.00000000       0.00000000      -0.00000000       0.00000000      -0.00000000       4.75794000      -0.00141000      -0.00000000      -0.00000000       4.75989000      -0.00000000       0.00765000       0.00541000       4.76137000
Sb       2.52849750       1.78791750       4.37948550      -0.00000000      -0.00000000      -0.00000000       2.43523000      -0.00206000      -0.00000000      -0.00000000       2.43688000      -0.00000000      -0.00179000      -0.00127000       2.42672000
Ru       1.26424875       0.89395875       2.18974275      -0.00000000      -0.00000000       0.00000000      -7.19354000       0.00494000      -0.00000000      -0.00000000      -7.19709000      -0.00000000      -0.00857000      -0.00606000      -7.18806000
9
Lattice="2.574614 -4.459362 0.0 2.574614 4.459362 0.0 0.0 0.0 5.49372" Properties=species:S:1:pos:R:3:REF_forces:R:3:REF_bec:R:9 REF_energy=-55.52406796 REF_electric_field="0.0 0.0 0.0" REF_polarisability="0.214198043540455 0.0 0.0 0.0 0.21419796396298343 0.0 0.0 0.0 0.15919640295457077" REF_piezoelectric="0.0 0.0 0.0 -0.03352 -0.03811 0.0 -0.03352 0.03352 0.0 0.0 0.0 0.03811 0.0 0.0 0.0 0.0 0.0 0.0" REF_dielectric_ionic="7.549247 -2.9e-05 5.1e-05 -2.9e-05 7.549321 0.0 5.1e-05 0.0 4.556392" REF_stress="-0.0009178107712405336 -0.0 -0.0 -0.0 -0.0009178106651348785 -0.0 -0.0 -0.0 -0.0006973121911129561" pbc="T T T"
Sr       0.00000000       0.00000000       0.00000000       0.00000000       0.00000000       0.00000000       2.42546000       0.00001000       0.00005000       0.00000000       2.42547000       0.00000000       0.00000000       0.00000000       3.29105000
Ge       2.57461400      -1.48645697       2.74686000       0.00000000       0.00000000       0.00000000       4.41494000       0.00003000       0.00017000       0.00000000       4.41494000       0.00000000       0.00000000       0.00000000       2.21788000
Te       2.57461400       1.48645697       2.74686000       0.00000000       0.00000000       0.00000000       5.19897000      -0.00007000       0.00002000       0.00000000       5.19911000       0.00000000       0.00000000       0.00000000       3.16005000
O        1.96043983      -0.01648180       3.84249455       0.00192445      -0.00221558      -0.00604080      -1.59821000      -0.03413000       0.33916000      -0.00357000      -2.41511000       0.01603000       0.41344000       0.04456000      -1.44486000
O        1.60866774      -2.75333050       3.84249455       0.00095652       0.00277441      -0.00604080      -2.22717000      -0.35944000      -0.18334000      -0.32892000      -1.78601000       0.28575000      -0.24531000       0.33577000      -1.44486000
O        4.15473442      -1.68954970       3.84249455      -0.00288097      -0.00055883      -0.00604080      -2.19448000       0.34785000      -0.15581000       0.37832000      -1.81880000      -0.30174000      -0.16813000      -0.38033000      -1.44486000
O        0.99449358      -1.68954970       1.65122545       0.00288097      -0.00055883       0.00604080      -2.19446000      -0.34786000      -0.15572000      -0.37832000      -1.81880000       0.30174000      -0.16816000       0.38039000      -1.44482000
O        3.54056026      -2.75333050       1.65122545      -0.00095652       0.00277441       0.00604080      -2.22716000       0.35942000      -0.18346000       0.32892000      -1.78601000      -0.28575000      -0.24535000      -0.33583000      -1.44482000
O        3.18878817      -0.01648180       1.65122545      -0.00192445      -0.00221558       0.00604080      -1.59828000       0.03412000       0.33914000       0.00357000      -2.41511000      -0.01603000       0.41351000      -0.04456000      -1.44482000
10
Lattice="0.0 4.580137 0.0 5.403903 0.0 0.0 0.0 -2.08309 -6.664319" Properties=species:S:1:pos:R:3:REF_forces:R:3:REF_bec:R:9 REF_energy=-74.64082586 REF_electric_field="0.0 0.0 0.0" REF_polarisability="0.1542684088741449 0.0 0.0 0.0 0.1325306288592961 0.02323542802934353 0.0 0.02323542802934353 0.12656478539496796" REF_piezoelectric="-0.0763 0.03973 0.04667 0.0 0.04277 0.0 0.0 0.0 0.0 0.02523 0.0 0.04904 0.0 0.0 0.0 0.03489 0.0 0.06434" REF_dielectric_ionic="6.780161 0.000124 -6.2e-05 0.000124 4.710493 0.013275 -6.2e-05 0.013275 6.148968" REF_stress="0.0026154568264188218 -0.0 -0.0 -0.0 -0.001553758941231456 0.00048331243256648573 -0.0 0.00048330768277804096 0.00014979145674973515" pbc="T T T"
Ba       1.26554545       0.99855490      -1.51823183      -0.00213269       0.00414631      -0.03494886       2.73088000       0.02003000      -0.01671000       0.03050000       2.66788000       0.11856000      -0.03546000       0.08040000       2.60776000
Ba       3.96749695       1.49849210      -5.14608717      -0.00213269      -0.00414631       0.03494886       2.73088000      -0.02003000       0.01671000      -0.03047000       2.66776000       0.11851000       0.03542000       0.08056000       2.60753000
C        3.94769705       2.84774344      -1.65661642       0.03175108       0.05692905       0.09290947       3.21096000       0.14771000      -0.12078000       0.09900000       1.82035000       1.44182000      -0.11818000       1.58274000       1.38210000
C        1.24574555      -0.35069644      -5.00770258       0.03175108      -0.05692905      -0.09290947       3.21096000      -0.14771000       0.12078000      -0.09909000       1.82047000       1.44186000       0.11810000       1.58273000       1.38219000
O        5.11300550       3.32413787      -1.32733242      -0.08472813      -0.01922632       0.07378843      -2.40038000      -0.51494000      -0.25281000      -0.48312000      -1.42607000      -0.28684000      -0.26530000      -0.32474000      -0.99870000
O        2.86567355       3.34943387      -1.12595669       0.00268038      -0.05600094      -0.02186938      -2.19951000       0.47613000       0.36937000       0.46521000      -1.40815000      -0.38956000       0.37980000      -0.43448000      -1.22575000
O        3.86280173       1.81839401      -2.44963706       0.05242936       0.06409289       0.05673875      -1.34130000      -0.13093000      -0.02546000      -0.11209000      -1.65103000      -0.88186000      -0.00636000      -0.89974000      -1.76239000
O        1.16085023       0.67865299      -4.21468194       0.05242936      -0.06409289      -0.05673875      -1.34130000       0.13093000       0.02546000       0.11204000      -1.65039000      -0.88161000       0.00640000      -0.89975000      -1.76314000
O        2.41105400      -0.82709087      -5.33698658      -0.08472813       0.01922632      -0.07378843      -2.40038000       0.51494000       0.25281000       0.48266000      -1.42570000      -0.28640000       0.26520000      -0.32485000      -0.99843000
O        0.16372205      -0.85238687      -5.53836231       0.00268038       0.05600094       0.02186938      -2.19951000      -0.47613000      -0.36937000      -0.46533000      -1.40802000      -0.38924000      -0.37991000      -0.43456000      -1.22573000
8
Lattice="-4.525901 4.525901 -3.799834 4.525901 -4.525901 -3.799834 -4.525901 -4.525901 3.799834" Properties=species:S:1:pos:R:3:REF_forces:R:3:REF_bec:R:9 REF_energy=-23.36654629 REF_electric_field="0.0 0.0 0.0" REF_polarisability="0.44376186021666014 -0.0 0.0 -0.0 0.44376186021666014 -0.0 0.0 -0.0 0.712604241495758" REF_piezoelectric="0.0 0.0 0.0 0.0 0.0 0.0 0.0 0.0 0.0 0.0 0.0 0.0 0.0 0.0 0.0 0.0 0.0 0.0" REF_dielectric_ionic="4.538844 -0.0 -0.0 -0.0 4.538844 0.0 -0.0 0.0 6.348249" REF_stress="4.9444036925495006e-05 -0.0 -0.0 -0.0 4.9444036925495006e-05 -0.0 -0.0 -0.0 0.00019130234833095877" pbc="T T T"
Rb       0.00000000      -4.52590100       0.00000000      -0.00000000      -0.00000000       0.00000000       1.51939000      -0.00000000       0.00000000      -0.00000000       1.43877000      -0.00000000       0.00000000      -0.00000000       1.06408000
Rb      -4.52590100       0.00000000       0.00000000      -0.00000000      -0.00000000      -0.00000000       1.43877000      -0.00000000       0.00000000      -0.00000000       1.51939000      -0.00000000       0.00000000      -0.00000000       1.06408000
Sn       0.00000000       0.00000000      -3.79983400       0.00000000      -0.00000000      -0.00000000       1.82129000      -0.00000000       0.00000000      -0.00000000       1.82129000      -0.00000000       0.00000000      -0.00000000       4.17610000
Hg       0.00000000       0.00000000       0.00000000       0.00000000      -0.00000000       0.00000000       1.93332000      -0.00000000       0.00000000      -0.00000000       1.93332000      -0.00000000       0.00000000      -0.00000000       3.90699000
Te      -1.52525579      -1.52525579      -5.59891101      -0.00736725      -0.00736725      -0.00749892      -1.67819000      -0.21666000       0.44304000      -0.21666000      -1.67819000       0.44304000      -0.00460000      -0.00460000      -2.55281000
Te      -3.00064521      -3.00064521      -1.79906941       0.00736725       0.00736725      -0.00749892      -1.67819000      -0.21666000      -0.44304000      -0.21666000      -1.67819000      -0.44304000       0.00460000       0.00460000      -2.55281000
Te       1.52526032      -1.52526032      -2.00076079       0.00736725      -0.00736725       0.00749892      -1.67819000       0.21666000       0.44304000       0.21666000      -1.67819000      -0.44304000      -0.00460000       0.00460000      -2.55281000
Te      -1.52526032       1.52526032      -2.00076079      -0.00736725       0.00736725       0.00749892      -1.67819000       0.21666000      -0.44304000       0.21666000      -1.67819000       0.44304000       0.00460000      -0.00460000      -2.55281000
36
Lattice="5.294636 0.0 0.0 0.0 9.175955 0.0 0.0 0.0 10.025313" Properties=species:S:1:pos:R:3:REF_forces:R:3:REF_bec:R:9 REF_energy=-306.5835093 REF_electric_field="0.0 0.0 0.0" REF_polarisability="0.2860022285108514 0.0 0.0 0.0 0.27403791481886125 0.0 0.0 0.0 0.27525385858408336" REF_piezoelectric="0.0 0.0 0.0 0.0 0.03499 0.0 0.0 0.0 0.0 0.0 0.0 0.16279 0.0 0.0 0.0 -0.09826 0.0 0.0" REF_dielectric_ionic="14.407546 0.0 -0.0 0.0 12.998696 -0.0 -0.0 -0.0 12.871482" REF_stress="-0.0003631652293799343 -0.0 -0.0 -0.0 -0.0005983532511673511 -0.0 -0.0 -0.0 -0.0004895380570516437" pbc="T T T"
Y        5.19384201       5.53578942       5.36498610       0.00838589       0.01290289      -0.00519482       3.75789000      -0.17708000       0.03630000      -0.02894000       3.75118000       0.00781000       0.31029000       0.09064000       4.09110000
Y        2.54652401       8.22814308       4.66032690       0.00838589      -0.01290289       0.00519482       3.75789000       0.17708000      -0.03630000       0.02935000       3.75120000       0.00749000      -0.31015000       0.09037000       4.09117000
Y        0.10079399       0.94781192       9.67298340      -0.00838589       0.01290289       0.00519482       3.75802000       0.17715000       0.03596000       0.02894000       3.75118000      -0.00781000       0.31015000      -0.09037000       4.09117000
Y        2.74811199       3.64016558       0.35232960      -0.00838589      -0.01290289      -0.00519482       3.75802000      -0.17715000      -0.03596000      -0.02935000       3.75120000      -0.00749000      -0.31029000      -0.09064000       4.09110000
Y        2.44246324       7.16665943       8.72588206      -0.00682349       0.00954521      -0.01274654       4.51849000      -0.08121000       0.16427000       0.17668000       4.42848000      -0.14057000       0.33206000      -0.27219000       3.90371000
Y        5.08978124       6.59727307       1.29943094      -0.00682349      -0.00954521       0.01274654       4.51849000       0.08121000      -0.16427000      -0.17682000       4.42846000      -0.14019000      -0.33205000      -0.27193000       3.90367000
Y        0.20485476       2.00929557       3.71322556       0.00682349      -0.00954521      -0.01274654       4.51864000      -0.08149000      -0.16460000       0.17682000       4.42846000       0.14019000      -0.33206000       0.27219000       3.90371000
Y        2.85217276       2.57868193       6.31208744       0.00682349       0.00954521       0.01274654       4.51864000       0.08149000       0.16460000      -0.17668000       4.42848000       0.14057000       0.33205000       0.27193000       3.90367000
W        5.08822462       9.13492013       6.53230347       0.00224119      -0.04390022       0.00005332       6.88438000       0.10430000      -0.27839000      -0.01103000       6.32538000       0.27148000      -0.09090000       0.00830000       6.58344000
W        2.44090662       4.62901237       3.49300953       0.00224119       0.04390022      -0.00005332       6.88438000      -0.10430000       0.27839000       0.01101000       6.32541000       0.27151000       0.09084000       0.00832000       6.58345000
W        0.20641138       4.54694263       8.50566603      -0.00224119      -0.04390022      -0.00005332       6.88469000      -0.10421000      -0.27849000       0.01103000       6.32538000      -0.27148000      -0.09084000      -0.00832000       6.58345000
W        2.85372938       0.04103487       1.51964697      -0.00224119       0.04390022       0.00005332       6.88469000       0.10421000       0.27849000      -0.01101000       6.32541000      -0.27151000       0.09090000      -0.00830000       6.58344000
O        3.98755980       0.81289785       5.07013162       0.01063980       0.00225785      -0.01494556      -2.54942000       0.20436000      -0.54222000      -0.02153000      -2.34665000       0.52294000      -0.44122000       0.49239000      -2.50516000
O        1.34024180       3.77507965       4.95518138       0.01063980      -0.00225785       0.01494556      -2.54942000      -0.20436000       0.54222000       0.02141000      -2.34671000       0.52300000       0.44128000       0.49250000      -2.50528000
O        1.30707620       5.40087535       9.96783788      -0.01063980       0.00225785       0.01494556      -2.54952000      -0.20417000      -0.54240000       0.02153000      -2.34665000      -0.52294000      -0.44128000      -0.49250000      -2.50528000
O        3.95439420       8.36305715       0.05747512      -0.01063980      -0.00225785      -0.01494556      -2.54952000       0.20417000       0.54240000      -0.02141000      -2.34671000      -0.52300000       0.44122000      -0.49239000      -2.50516000
O        1.22673010       1.05482191       5.69692421       0.00720625       0.01397039       0.00748329      -3.06882000      -1.01593000       0.54704000      -1.03071000      -2.50456000       0.40875000       0.41922000       0.49194000      -2.04713000
O        3.87404810       3.53315559       4.32838879       0.00720625      -0.01397039      -0.00748329      -3.06882000       1.01593000      -0.54704000       1.03078000      -2.50458000       0.40889000      -0.41921000       0.49200000      -2.04724000
O        4.06790590       5.64279941       9.34104529      -0.00720625       0.01397039      -0.00748329      -3.06882000       1.01594000       0.54744000       1.03071000      -2.50456000      -0.40875000       0.41921000      -0.49200000      -2.04724000
O        1.42058790       8.12113309       0.68426771      -0.00720625      -0.01397039       0.00748329      -3.06882000      -1.01594000      -0.54744000      -1.03078000      -2.50458000      -0.40889000      -0.41922000      -0.49194000      -2.04713000
O        0.45904494       7.73628436       5.32460414       0.02994503       0.02827864       0.01594193      -2.37747000       0.27053000       0.94985000       0.26012000      -3.26300000      -0.98585000       0.82325000      -0.77727000      -2.00522000